LAMMPS data file

310 atoms
1149 bonds
212 angles

7 atom types
24 bond types
1 angle types

-400.0 400.0 xlo xhi
-400.0 400.0 ylo yhi
-400.0 400.0 zlo zhi

Masses

1 1.0
2 1.0
3 1.0
4 1.0
5 1.0
6 1.0
7 1.0

Atoms # index molecule type q x y z

1 1 1 -7.350 51.988 5.856 -355.109
2 1 4 0.000 112.866 -16.683 -346.701
3 1 5 0.000 119.320 -35.656 -342.033
4 1 6 0.000 103.367 -47.787 -337.364
5 1 7 0.000 86.810 -36.496 -332.696
6 1 7 0.000 92.277 -17.215 -328.028
7 1 6 0.000 112.297 -16.295 -323.359
8 1 5 0.000 119.508 -34.993 -318.691
9 1 4 0.000 104.056 -47.755 -314.023
10 1 3 -0.000 86.809 5.856 -351.579
11 1 2 -0.000 119.041 5.856 -348.314
12 1 2 -0.000 140.758 -17.959 -345.050
13 1 2 -0.000 137.794 -50.054 -341.786
14 1 2 -0.000 112.082 -69.489 -338.522
15 1 2 -0.000 80.396 -63.586 -335.258
16 1 2 -0.000 63.408 -36.196 -331.994
17 1 2 -0.000 72.200 -5.187 -328.730
18 1 2 -0.000 101.037 9.211 -325.466
19 1 2 -0.000 131.106 -2.396 -322.202
20 1 2 -0.000 142.790 -32.435 -318.937
21 1 2 -0.000 128.467 -61.309 -315.673
22 1 2 -0.000 97.481 -70.181 -312.409
23 1 3 -0.000 70.047 -53.264 -309.145
24 1 1 -7.350 40.407 -34.986 -305.619
25 1 1 -7.350 10.768 -16.709 -302.092
26 1 1 -7.350 -18.872 1.569 -298.566
27 1 1 -7.350 -48.512 19.846 -295.039
28 1 4 0.000 -88.499 70.985 -286.635
29 1 5 0.000 -84.034 90.522 -281.967
30 1 6 0.000 -64.089 92.474 -277.299
31 1 7 0.000 -55.922 74.172 -272.630
32 1 7 0.000 -70.695 60.631 -267.962
33 1 6 0.000 -88.218 70.356 -263.294
34 1 5 0.000 -84.542 90.057 -258.625
35 1 4 0.000 -64.691 92.808 -253.957
36 1 3 -0.000 -78.151 38.123 -291.513
37 1 2 -0.000 -105.585 55.041 -288.249
38 1 2 -0.000 -111.570 86.711 -284.985
39 1 2 -0.000 -92.202 112.474 -281.720
40 1 2 -0.000 -60.115 115.521 -278.456
41 1 2 -0.000 -36.243 93.865 -275.192
42 1 2 -0.000 -36.160 61.634 -271.928
43 1 2 -0.000 -59.919 39.855 -268.664
44 1 2 -0.000 -92.022 42.736 -265.400
45 1 2 -0.000 -111.523 68.398 -262.136
46 1 2 -0.000 -105.702 100.099 -258.872
47 1 2 -0.000 -78.355 117.158 -255.608
48 1 2 -0.000 -47.324 108.446 -252.343
49 1 3 -0.000 -32.852 79.646 -249.079
50 1 1 -7.350 -17.217 48.532 -245.553
51 1 1 -7.350 -1.582 17.417 -242.026
52 1 1 -7.350 14.053 -13.697 -238.500
53 1 1 -7.350 29.688 -44.812 -234.973
54 1 4 0.000 36.882 -109.329 -226.569
55 1 5 0.000 22.827 -123.615 -221.901
56 1 6 0.000 4.826 -114.807 -217.233
57 1 7 0.000 7.480 -94.943 -212.564
58 1 7 0.000 27.163 -91.170 -207.896
59 1 6 0.000 36.974 -108.646 -203.228
60 1 5 0.000 23.504 -123.485 -198.559
61 1 4 0.000 5.163 -115.408 -193.891
62 1 3 -0.000 45.323 -75.926 -231.447
63 1 2 -0.000 59.795 -104.726 -228.183
64 1 2 -0.000 48.266 -134.825 -224.919
65 1 2 -0.000 18.257 -146.586 -221.655
66 1 2 -0.000 -10.654 -132.338 -218.391
67 1 2 -0.000 -19.606 -101.375 -215.126
68 1 2 -0.000 -2.759 -73.897 -211.862
69 1 2 -0.000 28.896 -67.830 -208.598
70 1 2 -0.000 54.708 -87.133 -205.334
71 1 2 -0.000 57.838 -119.212 -202.070
72 1 2 -0.000 36.244 -143.139 -198.806
73 1 2 -0.000 4.013 -143.306 -195.542
74 1 2 -0.000 -17.828 -119.602 -192.278
75 1 3 -0.000 -15.029 -87.493 -189.014
76 1 1 -7.350 -12.006 -52.802 -185.487
77 1 1 -7.350 -8.983 -18.112 -181.961
78 1 1 -7.350 -5.959 16.578 -178.434
79 1 1 -7.350 -2.936 51.269 -174.908
80 1 4 0.000 24.804 109.960 -166.504
81 1 5 0.000 44.266 114.743 -161.835
82 1 6 0.000 54.965 97.797 -157.167
83 1 7 0.000 42.280 82.282 -152.499
84 1 7 0.000 23.546 89.403 -147.830
85 1 6 0.000 24.368 109.427 -143.162
86 1 5 0.000 43.622 114.988 -138.494
87 1 4 0.000 54.994 98.486 -133.825
88 1 3 -0.000 0.087 85.959 -171.381
89 1 2 -0.000 2.886 118.069 -168.117
90 1 2 -0.000 28.497 137.636 -164.853
91 1 2 -0.000 60.213 131.897 -161.589
92 1 2 -0.000 77.343 104.594 -158.325
93 1 2 -0.000 68.711 73.541 -155.061
94 1 2 -0.000 39.949 58.995 -151.797
95 1 2 -0.000 9.820 70.446 -148.532
96 1 2 -0.000 -2.019 100.424 -145.268
97 1 2 -0.000 12.155 129.371 -142.004
98 1 2 -0.000 43.094 138.404 -138.740
99 1 2 -0.000 70.616 121.628 -135.476
100 1 2 -0.000 76.764 89.989 -132.212
101 1 3 -0.000 57.529 64.127 -128.948
102 1 1 -7.350 36.747 36.186 -125.421
103 1 1 -7.350 15.965 8.245 -121.895
104 1 1 -7.350 -4.816 -19.696 -118.368
105 1 1 -7.350 -25.598 -47.636 -114.842
106 1 4 0.000 -80.016 -83.033 -106.438
107 1 5 0.000 -99.092 -76.889 -101.770
108 1 6 0.000 -99.304 -56.849 -97.101
109 1 7 0.000 -80.363 -50.302 -92.433
110 1 7 0.000 -68.155 -66.195 -87.765
111 1 6 0.000 -79.365 -82.808 -83.096
112 1 5 0.000 -98.672 -77.435 -78.428
113 1 4 0.000 -99.690 -57.420 -73.759
114 1 3 -0.000 -46.380 -75.577 -111.315
115 1 2 -0.000 -65.615 -101.439 -108.051
116 1 2 -0.000 -97.686 -104.652 -104.787
117 1 2 -0.000 -121.670 -83.119 -101.523
118 1 2 -0.000 -121.919 -50.889 -98.259
119 1 2 -0.000 -98.272 -28.987 -94.995
120 1 2 -0.000 -66.156 -31.703 -91.731
121 1 2 -0.000 -46.522 -57.264 -88.467
122 1 2 -0.000 -52.179 -88.995 -85.203
123 1 2 -0.000 -79.438 -106.195 -81.938
124 1 2 -0.000 -110.514 -97.643 -78.674
125 1 2 -0.000 -125.134 -68.918 -75.410
126 1 2 -0.000 -113.760 -38.760 -72.146
127 1 3 -0.000 -83.813 -26.844 -68.882
128 1 1 -7.350 -51.459 -13.969 -65.355
129 1 1 -7.350 -19.104 -1.095 -61.829
130 1 1 -7.350 13.250 11.780 -58.303
131 1 1 -7.350 45.605 24.654 -54.776
132 1 4 0.000 110.503 26.220 -46.372
133 1 5 0.000 123.515 10.978 -41.704
134 1 6 0.000 113.177 -6.191 -37.035
135 1 7 0.000 93.618 -1.822 -32.367
136 1 7 0.000 91.569 18.114 -27.699
137 1 6 0.000 109.830 26.370 -23.030
138 1 5 0.000 123.444 11.663 -18.362
139 1 4 0.000 113.805 -5.907 -13.694
140 1 3 -0.000 77.959 37.529 -51.250
141 1 2 -0.000 107.907 49.445 -47.985
142 1 2 -0.000 136.891 35.347 -44.721
143 1 2 -0.000 146.003 4.430 -41.457
144 1 2 -0.000 129.298 -23.134 -38.193
145 1 2 -0.000 97.675 -29.365 -34.929
146 1 2 -0.000 71.763 -10.196 -31.665
147 1 2 -0.000 68.468 21.867 -28.401
148 1 2 -0.000 89.938 45.905 -25.137
149 1 2 -0.000 122.168 46.238 -21.873
150 1 2 -0.000 144.130 22.648 -18.609
151 1 2 -0.000 141.498 -9.475 -15.344
152 1 2 -0.000 115.988 -29.175 -12.080
153 1 3 -0.000 84.242 -23.600 -8.816
154 1 1 -7.350 49.945 -17.576 -5.290
155 1 1 -7.350 15.648 -11.552 -1.763
156 1 1 -7.350 -18.648 -5.528 1.763
157 1 1 -7.350 -52.945 0.495 5.290
158 1 4 0.000 -109.007 33.227 13.694
159 1 5 0.000 -112.082 53.030 18.362
160 1 6 0.000 -94.271 62.218 23.030
161 1 7 0.000 -79.916 48.233 27.699
162 1 7 0.000 -88.636 30.188 32.367
163 1 6 0.000 -108.513 32.746 37.035
164 1 5 0.000 -112.382 52.410 41.704
165 1 4 0.000 -94.955 62.306 46.372
166 1 3 -0.000 -87.242 6.519 8.816
167 1 2 -0.000 -118.988 12.095 12.080
168 1 2 -0.000 -136.258 39.309 15.344
169 1 2 -0.000 -127.786 70.407 18.609
170 1 2 -0.000 -99.100 85.101 21.873
171 1 2 -0.000 -68.913 73.805 25.137
172 1 2 -0.000 -56.919 43.889 28.401
173 1 2 -0.000 -70.943 14.869 31.665
174 1 2 -0.000 -101.835 5.677 34.929
175 1 2 -0.000 -129.443 22.310 38.193
176 1 2 -0.000 -135.755 53.917 41.457
177 1 2 -0.000 -116.653 79.878 44.721
178 1 2 -0.000 -84.599 83.256 47.986
179 1 3 -0.000 -60.505 61.848 51.250
180 1 1 -7.350 -34.474 38.719 54.776
181 1 1 -7.350 -8.443 15.590 58.303
182 1 1 -7.350 17.588 -7.539 61.829
183 1 1 -7.350 43.619 -30.668 65.356
184 1 4 0.000 74.157 -87.954 73.759
185 1 5 0.000 66.380 -106.424 78.428
186 1 6 0.000 46.397 -104.896 83.096
187 1 7 0.000 41.519 -85.458 87.765
188 1 7 0.000 58.412 -74.676 92.433
189 1 6 0.000 73.989 -87.285 97.101
190 1 5 0.000 66.961 -106.053 101.770
191 1 4 0.000 46.933 -105.330 106.438
192 1 3 -0.000 69.649 -53.797 68.882
193 1 2 -0.000 93.744 -75.206 72.146
194 1 2 -0.000 94.160 -107.434 75.410
195 1 2 -0.000 70.626 -129.458 78.674
196 1 2 -0.000 38.496 -126.908 81.938
197 1 2 -0.000 18.730 -101.449 85.203
198 1 2 -0.000 24.224 -69.689 88.467
199 1 2 -0.000 51.393 -52.349 91.731
200 1 2 -0.000 82.513 -60.740 94.995
201 1 2 -0.000 97.281 -89.389 98.259
202 1 2 -0.000 86.064 -119.605 101.523
203 1 2 -0.000 56.178 -131.676 104.787
204 1 2 -0.000 27.122 -117.727 108.051
205 1 3 -0.000 17.850 -86.858 111.315
206 1 1 -7.350 7.833 -53.508 114.842
207 1 1 -7.350 -2.183 -20.158 118.368
208 1 1 -7.350 -12.200 13.192 121.895
209 1 1 -7.350 -22.217 46.542 125.421
210 1 4 0.000 -18.142 111.331 133.825
211 1 5 0.000 -1.828 122.971 138.494
212 1 6 0.000 14.379 111.181 143.162
213 1 7 0.000 8.328 92.076 147.830
214 1 7 0.000 -11.710 91.765 152.499
215 1 6 0.000 -18.350 110.674 157.167
216 1 5 0.000 -2.517 122.960 161.835
217 1 4 0.000 14.151 111.832 166.504
218 1 3 -0.000 -32.234 79.892 128.948
219 1 2 -0.000 -41.505 110.761 132.212
220 1 2 -0.000 -24.943 138.412 135.476
221 1 2 -0.000 6.647 144.805 138.740
222 1 2 -0.000 32.658 125.770 142.004
223 1 2 -0.000 36.119 93.726 145.268
224 1 2 -0.000 14.773 69.576 148.532
225 1 2 -0.000 -17.455 69.077 151.797
226 1 2 -0.000 -39.539 92.553 155.061
227 1 2 -0.000 -37.072 124.690 158.325
228 1 2 -0.000 -11.664 144.521 161.589
229 1 2 -0.000 20.110 139.110 164.853
230 1 2 -0.000 37.520 111.986 168.117
231 1 3 -0.000 29.209 80.844 171.381
232 1 1 -7.350 20.231 47.200 174.908
233 1 1 -7.350 11.252 13.555 178.434
234 1 1 -7.350 2.273 -20.089 181.961
235 1 1 -7.350 -6.706 -53.733 185.487
236 1 4 0.000 -44.181 -106.741 193.891
237 1 5 0.000 -64.177 -108.085 198.559
238 1 6 0.000 -71.783 -89.544 203.228
239 1 7 0.000 -56.605 -76.458 207.896
240 1 7 0.000 -39.385 -86.711 212.564
241 1 6 0.000 -43.659 -106.291 217.233
242 1 5 0.000 -63.584 -108.438 221.901
243 1 4 0.000 -71.930 -90.217 226.569
244 1 3 -0.000 -15.685 -87.378 189.014
245 1 2 -0.000 -23.995 -118.519 192.278
246 1 2 -0.000 -52.606 -133.361 195.542
247 1 2 -0.000 -82.851 -122.222 198.806
248 1 2 -0.000 -94.999 -92.368 202.070
249 1 2 -0.000 -81.125 -63.275 205.334
250 1 2 -0.000 -50.280 -53.924 208.598
251 1 2 -0.000 -22.587 -70.415 211.862
252 1 2 -0.000 -16.112 -101.989 215.126
253 1 2 -0.000 -35.080 -128.048 218.391
254 1 2 -0.000 -67.115 -131.592 221.655
255 1 2 -0.000 -91.320 -110.308 224.919
256 1 2 -0.000 -91.903 -78.082 228.183
257 1 3 -0.000 -68.483 -55.938 231.447
258 1 1 -7.350 -43.181 -32.013 234.973
259 1 1 -7.350 -17.879 -8.089 238.500
260 1 1 -7.350 7.422 15.836 242.026
261 1 1 -7.350 32.724 39.760 245.553
262 1 4 0.000 92.445 65.209 253.957
263 1 5 0.000 110.170 55.858 258.625
264 1 6 0.000 106.913 36.083 263.294
265 1 7 0.000 87.125 32.912 267.962
266 1 7 0.000 77.850 50.677 272.630
267 1 6 0.000 91.764 65.100 277.299
268 1 5 0.000 109.851 56.469 281.967
269 1 4 0.000 107.391 36.580 286.635
270 1 3 -0.000 58.026 63.685 249.079
271 1 2 -0.000 81.446 85.829 252.343
272 1 2 -0.000 113.589 83.446 255.608
273 1 2 -0.000 133.485 58.089 258.872
274 1 2 -0.000 128.156 26.301 262.136
275 1 2 -0.000 101.077 8.821 265.400
276 1 2 -0.000 69.914 17.051 268.664
277 1 2 -0.000 54.998 45.623 271.928
278 1 2 -0.000 66.059 75.897 275.192
279 1 2 -0.000 95.882 88.122 278.456
280 1 2 -0.000 125.010 74.323 281.720
281 1 2 -0.000 134.441 43.503 284.985
282 1 2 -0.000 118.022 15.767 288.249
283 1 3 -0.000 86.465 9.211 291.513
284 1 1 -7.350 52.371 2.127 295.039
285 1 1 -7.350 18.277 -4.956 298.566
286 1 1 -7.350 -15.817 -12.040 302.092
287 1 1 -7.350 -49.911 -19.123 305.619
288 1 4 0.000 -114.101 -9.439 314.023
289 1 5 0.000 -124.280 7.825 318.691
290 1 6 0.000 -111.128 22.947 323.359
291 1 7 0.000 -92.620 15.260 328.028
292 1 7 0.000 -94.051 -4.730 332.696
293 1 6 0.000 -113.465 -9.703 337.364
294 1 5 0.000 -124.329 7.137 342.033
295 1 4 0.000 -111.796 22.776 346.701
296 1 3 -0.000 -84.004 -26.207 309.145
297 1 2 -0.000 -115.562 -32.763 312.409
298 1 2 -0.000 -141.670 -13.863 315.673
299 1 2 -0.000 -145.296 18.164 318.937
300 1 2 -0.000 -124.075 42.423 322.202
301 1 2 -0.000 -91.851 43.089 325.466
302 1 2 -0.000 -69.646 19.727 328.730
303 1 2 -0.000 -71.947 -12.422 331.994
304 1 2 -0.000 -97.252 -32.385 335.258
305 1 2 -0.000 -129.053 -27.137 338.522
306 1 2 -0.000 -146.604 -0.103 341.786
307 1 2 -0.000 -138.454 31.080 345.050
308 1 2 -0.000 -109.920 46.070 348.314
309 1 3 -0.000 -79.618 35.087 351.579
310 1 1 -7.350 -46.880 23.221 355.105

Bonds

1 6 2 3
2 7 2 4
3 8 2 5
4 9 2 6
5 10 2 7
6 11 2 8
7 4 2 10
8 12 2 11
9 13 2 12
10 14 2 18
11 15 2 19
12 6 3 4
13 7 3 5
14 8 3 6
15 9 3 7
16 10 3 8
17 11 3 9
18 16 3 12
19 17 3 13
20 18 3 14
21 19 3 20
22 20 3 21
23 6 4 5
24 7 4 6
25 8 4 7
26 9 4 8
27 10 4 9
28 21 4 13
29 12 4 14
30 13 4 15
31 14 4 21
32 15 4 22
33 6 5 6
34 7 5 7
35 8 5 8
36 9 5 9
37 16 5 15
38 17 5 16
39 22 5 17
40 3 5 23
41 6 6 7
42 7 6 8
43 8 6 9
44 3 6 10
45 22 6 16
46 17 6 17
47 16 6 18
48 6 7 8
49 7 7 9
50 15 7 11
51 14 7 12
52 13 7 18
53 12 7 19
54 21 7 20
55 6 8 9
56 20 8 12
57 19 8 13
58 18 8 19
59 17 8 20
60 16 8 21
61 15 9 14
62 14 9 15
63 13 9 21
64 12 9 22
65 4 9 23
66 5 10 17
67 5 10 18
68 2 11 12
69 23 11 18
70 24 11 19
71 2 12 13
72 23 12 19
73 24 12 20
74 2 13 14
75 23 13 20
76 24 13 21
77 2 14 15
78 23 14 21
79 24 14 22
80 2 15 16
81 23 15 22
82 5 15 23
83 2 16 17
84 5 16 23
85 2 17 18
86 2 18 19
87 2 19 20
88 2 20 21
89 2 21 22
90 2 10 11
91 2 22 23
92 1 1 10
93 1 23 24
94 1 24 25
95 1 25 26
96 1 26 27
97 6 28 29
98 7 28 30
99 8 28 31
100 9 28 32
101 10 28 33
102 11 28 34
103 4 28 36
104 12 28 37
105 13 28 38
106 14 28 44
107 15 28 45
108 6 29 30
109 7 29 31
110 8 29 32
111 9 29 33
112 10 29 34
113 11 29 35
114 16 29 38
115 17 29 39
116 18 29 40
117 19 29 46
118 20 29 47
119 6 30 31
120 7 30 32
121 8 30 33
122 9 30 34
123 10 30 35
124 21 30 39
125 12 30 40
126 13 30 41
127 14 30 47
128 15 30 48
129 6 31 32
130 7 31 33
131 8 31 34
132 9 31 35
133 16 31 41
134 17 31 42
135 22 31 43
136 3 31 49
137 6 32 33
138 7 32 34
139 8 32 35
140 3 32 36
141 22 32 42
142 17 32 43
143 16 32 44
144 6 33 34
145 7 33 35
146 15 33 37
147 14 33 38
148 13 33 44
149 12 33 45
150 21 33 46
151 6 34 35
152 20 34 38
153 19 34 39
154 18 34 45
155 17 34 46
156 16 34 47
157 15 35 40
158 14 35 41
159 13 35 47
160 12 35 48
161 4 35 49
162 5 36 43
163 5 36 44
164 2 37 38
165 23 37 44
166 24 37 45
167 2 38 39
168 23 38 45
169 24 38 46
170 2 39 40
171 23 39 46
172 24 39 47
173 2 40 41
174 23 40 47
175 24 40 48
176 2 41 42
177 23 41 48
178 5 41 49
179 2 42 43
180 5 42 49
181 2 43 44
182 2 44 45
183 2 45 46
184 2 46 47
185 2 47 48
186 2 36 37
187 2 48 49
188 1 27 36
189 1 49 50
190 1 50 51
191 1 51 52
192 1 52 53
193 6 54 55
194 7 54 56
195 8 54 57
196 9 54 58
197 10 54 59
198 11 54 60
199 4 54 62
200 12 54 63
201 13 54 64
202 14 54 70
203 15 54 71
204 6 55 56
205 7 55 57
206 8 55 58
207 9 55 59
208 10 55 60
209 11 55 61
210 16 55 64
211 17 55 65
212 18 55 66
213 19 55 72
214 20 55 73
215 6 56 57
216 7 56 58
217 8 56 59
218 9 56 60
219 10 56 61
220 21 56 65
221 12 56 66
222 13 56 67
223 14 56 73
224 15 56 74
225 6 57 58
226 7 57 59
227 8 57 60
228 9 57 61
229 16 57 67
230 17 57 68
231 22 57 69
232 3 57 75
233 6 58 59
234 7 58 60
235 8 58 61
236 3 58 62
237 22 58 68
238 17 58 69
239 16 58 70
240 6 59 60
241 7 59 61
242 15 59 63
243 14 59 64
244 13 59 70
245 12 59 71
246 21 59 72
247 6 60 61
248 20 60 64
249 19 60 65
250 18 60 71
251 17 60 72
252 16 60 73
253 15 61 66
254 14 61 67
255 13 61 73
256 12 61 74
257 4 61 75
258 5 62 69
259 5 62 70
260 2 63 64
261 23 63 70
262 24 63 71
263 2 64 65
264 23 64 71
265 24 64 72
266 2 65 66
267 23 65 72
268 24 65 73
269 2 66 67
270 23 66 73
271 24 66 74
272 2 67 68
273 23 67 74
274 5 67 75
275 2 68 69
276 5 68 75
277 2 69 70
278 2 70 71
279 2 71 72
280 2 72 73
281 2 73 74
282 2 62 63
283 2 74 75
284 1 53 62
285 1 75 76
286 1 76 77
287 1 77 78
288 1 78 79
289 6 80 81
290 7 80 82
291 8 80 83
292 9 80 84
293 10 80 85
294 11 80 86
295 4 80 88
296 12 80 89
297 13 80 90
298 14 80 96
299 15 80 97
300 6 81 82
301 7 81 83
302 8 81 84
303 9 81 85
304 10 81 86
305 11 81 87
306 16 81 90
307 17 81 91
308 18 81 92
309 19 81 98
310 20 81 99
311 6 82 83
312 7 82 84
313 8 82 85
314 9 82 86
315 10 82 87
316 21 82 91
317 12 82 92
318 13 82 93
319 14 82 99
320 15 82 100
321 6 83 84
322 7 83 85
323 8 83 86
324 9 83 87
325 16 83 93
326 17 83 94
327 22 83 95
328 3 83 101
329 6 84 85
330 7 84 86
331 8 84 87
332 3 84 88
333 22 84 94
334 17 84 95
335 16 84 96
336 6 85 86
337 7 85 87
338 15 85 89
339 14 85 90
340 13 85 96
341 12 85 97
342 21 85 98
343 6 86 87
344 20 86 90
345 19 86 91
346 18 86 97
347 17 86 98
348 16 86 99
349 15 87 92
350 14 87 93
351 13 87 99
352 12 87 100
353 4 87 101
354 5 88 95
355 5 88 96
356 2 89 90
357 23 89 96
358 24 89 97
359 2 90 91
360 23 90 97
361 24 90 98
362 2 91 92
363 23 91 98
364 24 91 99
365 2 92 93
366 23 92 99
367 24 92 100
368 2 93 94
369 23 93 100
370 5 93 101
371 2 94 95
372 5 94 101
373 2 95 96
374 2 96 97
375 2 97 98
376 2 98 99
377 2 99 100
378 2 88 89
379 2 100 101
380 1 79 88
381 1 101 102
382 1 102 103
383 1 103 104
384 1 104 105
385 6 106 107
386 7 106 108
387 8 106 109
388 9 106 110
389 10 106 111
390 11 106 112
391 4 106 114
392 12 106 115
393 13 106 116
394 14 106 122
395 15 106 123
396 6 107 108
397 7 107 109
398 8 107 110
399 9 107 111
400 10 107 112
401 11 107 113
402 16 107 116
403 17 107 117
404 18 107 118
405 19 107 124
406 20 107 125
407 6 108 109
408 7 108 110
409 8 108 111
410 9 108 112
411 10 108 113
412 21 108 117
413 12 108 118
414 13 108 119
415 14 108 125
416 15 108 126
417 6 109 110
418 7 109 111
419 8 109 112
420 9 109 113
421 16 109 119
422 17 109 120
423 22 109 121
424 3 109 127
425 6 110 111
426 7 110 112
427 8 110 113
428 3 110 114
429 22 110 120
430 17 110 121
431 16 110 122
432 6 111 112
433 7 111 113
434 15 111 115
435 14 111 116
436 13 111 122
437 12 111 123
438 21 111 124
439 6 112 113
440 20 112 116
441 19 112 117
442 18 112 123
443 17 112 124
444 16 112 125
445 15 113 118
446 14 113 119
447 13 113 125
448 12 113 126
449 4 113 127
450 5 114 121
451 5 114 122
452 2 115 116
453 23 115 122
454 24 115 123
455 2 116 117
456 23 116 123
457 24 116 124
458 2 117 118
459 23 117 124
460 24 117 125
461 2 118 119
462 23 118 125
463 24 118 126
464 2 119 120
465 23 119 126
466 5 119 127
467 2 120 121
468 5 120 127
469 2 121 122
470 2 122 123
471 2 123 124
472 2 124 125
473 2 125 126
474 2 114 115
475 2 126 127
476 1 105 114
477 1 127 128
478 1 128 129
479 1 129 130
480 1 130 131
481 6 132 133
482 7 132 134
483 8 132 135
484 9 132 136
485 10 132 137
486 11 132 138
487 4 132 140
488 12 132 141
489 13 132 142
490 14 132 148
491 15 132 149
492 6 133 134
493 7 133 135
494 8 133 136
495 9 133 137
496 10 133 138
497 11 133 139
498 16 133 142
499 17 133 143
500 18 133 144
501 19 133 150
502 20 133 151
503 6 134 135
504 7 134 136
505 8 134 137
506 9 134 138
507 10 134 139
508 21 134 143
509 12 134 144
510 13 134 145
511 14 134 151
512 15 134 152
513 6 135 136
514 7 135 137
515 8 135 138
516 9 135 139
517 16 135 145
518 17 135 146
519 22 135 147
520 3 135 153
521 6 136 137
522 7 136 138
523 8 136 139
524 3 136 140
525 22 136 146
526 17 136 147
527 16 136 148
528 6 137 138
529 7 137 139
530 15 137 141
531 14 137 142
532 13 137 148
533 12 137 149
534 21 137 150
535 6 138 139
536 20 138 142
537 19 138 143
538 18 138 149
539 17 138 150
540 16 138 151
541 15 139 144
542 14 139 145
543 13 139 151
544 12 139 152
545 4 139 153
546 5 140 147
547 5 140 148
548 2 141 142
549 23 141 148
550 24 141 149
551 2 142 143
552 23 142 149
553 24 142 150
554 2 143 144
555 23 143 150
556 24 143 151
557 2 144 145
558 23 144 151
559 24 144 152
560 2 145 146
561 23 145 152
562 5 145 153
563 2 146 147
564 5 146 153
565 2 147 148
566 2 148 149
567 2 149 150
568 2 150 151
569 2 151 152
570 2 140 141
571 2 152 153
572 1 131 140
573 1 153 154
574 1 154 155
575 1 155 156
576 1 156 157
577 6 158 159
578 7 158 160
579 8 158 161
580 9 158 162
581 10 158 163
582 11 158 164
583 4 158 166
584 12 158 167
585 13 158 168
586 14 158 174
587 15 158 175
588 6 159 160
589 7 159 161
590 8 159 162
591 9 159 163
592 10 159 164
593 11 159 165
594 16 159 168
595 17 159 169
596 18 159 170
597 19 159 176
598 20 159 177
599 6 160 161
600 7 160 162
601 8 160 163
602 9 160 164
603 10 160 165
604 21 160 169
605 12 160 170
606 13 160 171
607 14 160 177
608 15 160 178
609 6 161 162
610 7 161 163
611 8 161 164
612 9 161 165
613 16 161 171
614 17 161 172
615 22 161 173
616 3 161 179
617 6 162 163
618 7 162 164
619 8 162 165
620 3 162 166
621 22 162 172
622 17 162 173
623 16 162 174
624 6 163 164
625 7 163 165
626 15 163 167
627 14 163 168
628 13 163 174
629 12 163 175
630 21 163 176
631 6 164 165
632 20 164 168
633 19 164 169
634 18 164 175
635 17 164 176
636 16 164 177
637 15 165 170
638 14 165 171
639 13 165 177
640 12 165 178
641 4 165 179
642 5 166 173
643 5 166 174
644 2 167 168
645 23 167 174
646 24 167 175
647 2 168 169
648 23 168 175
649 24 168 176
650 2 169 170
651 23 169 176
652 24 169 177
653 2 170 171
654 23 170 177
655 24 170 178
656 2 171 172
657 23 171 178
658 5 171 179
659 2 172 173
660 5 172 179
661 2 173 174
662 2 174 175
663 2 175 176
664 2 176 177
665 2 177 178
666 2 166 167
667 2 178 179
668 1 157 166
669 1 179 180
670 1 180 181
671 1 181 182
672 1 182 183
673 6 184 185
674 7 184 186
675 8 184 187
676 9 184 188
677 10 184 189
678 11 184 190
679 4 184 192
680 12 184 193
681 13 184 194
682 14 184 200
683 15 184 201
684 6 185 186
685 7 185 187
686 8 185 188
687 9 185 189
688 10 185 190
689 11 185 191
690 16 185 194
691 17 185 195
692 18 185 196
693 19 185 202
694 20 185 203
695 6 186 187
696 7 186 188
697 8 186 189
698 9 186 190
699 10 186 191
700 21 186 195
701 12 186 196
702 13 186 197
703 14 186 203
704 15 186 204
705 6 187 188
706 7 187 189
707 8 187 190
708 9 187 191
709 16 187 197
710 17 187 198
711 22 187 199
712 3 187 205
713 6 188 189
714 7 188 190
715 8 188 191
716 3 188 192
717 22 188 198
718 17 188 199
719 16 188 200
720 6 189 190
721 7 189 191
722 15 189 193
723 14 189 194
724 13 189 200
725 12 189 201
726 21 189 202
727 6 190 191
728 20 190 194
729 19 190 195
730 18 190 201
731 17 190 202
732 16 190 203
733 15 191 196
734 14 191 197
735 13 191 203
736 12 191 204
737 4 191 205
738 5 192 199
739 5 192 200
740 2 193 194
741 23 193 200
742 24 193 201
743 2 194 195
744 23 194 201
745 24 194 202
746 2 195 196
747 23 195 202
748 24 195 203
749 2 196 197
750 23 196 203
751 24 196 204
752 2 197 198
753 23 197 204
754 5 197 205
755 2 198 199
756 5 198 205
757 2 199 200
758 2 200 201
759 2 201 202
760 2 202 203
761 2 203 204
762 2 192 193
763 2 204 205
764 1 183 192
765 1 205 206
766 1 206 207
767 1 207 208
768 1 208 209
769 6 210 211
770 7 210 212
771 8 210 213
772 9 210 214
773 10 210 215
774 11 210 216
775 4 210 218
776 12 210 219
777 13 210 220
778 14 210 226
779 15 210 227
780 6 211 212
781 7 211 213
782 8 211 214
783 9 211 215
784 10 211 216
785 11 211 217
786 16 211 220
787 17 211 221
788 18 211 222
789 19 211 228
790 20 211 229
791 6 212 213
792 7 212 214
793 8 212 215
794 9 212 216
795 10 212 217
796 21 212 221
797 12 212 222
798 13 212 223
799 14 212 229
800 15 212 230
801 6 213 214
802 7 213 215
803 8 213 216
804 9 213 217
805 16 213 223
806 17 213 224
807 22 213 225
808 3 213 231
809 6 214 215
810 7 214 216
811 8 214 217
812 3 214 218
813 22 214 224
814 17 214 225
815 16 214 226
816 6 215 216
817 7 215 217
818 15 215 219
819 14 215 220
820 13 215 226
821 12 215 227
822 21 215 228
823 6 216 217
824 20 216 220
825 19 216 221
826 18 216 227
827 17 216 228
828 16 216 229
829 15 217 222
830 14 217 223
831 13 217 229
832 12 217 230
833 4 217 231
834 5 218 225
835 5 218 226
836 2 219 220
837 23 219 226
838 24 219 227
839 2 220 221
840 23 220 227
841 24 220 228
842 2 221 222
843 23 221 228
844 24 221 229
845 2 222 223
846 23 222 229
847 24 222 230
848 2 223 224
849 23 223 230
850 5 223 231
851 2 224 225
852 5 224 231
853 2 225 226
854 2 226 227
855 2 227 228
856 2 228 229
857 2 229 230
858 2 218 219
859 2 230 231
860 1 209 218
861 1 231 232
862 1 232 233
863 1 233 234
864 1 234 235
865 6 236 237
866 7 236 238
867 8 236 239
868 9 236 240
869 10 236 241
870 11 236 242
871 4 236 244
872 12 236 245
873 13 236 246
874 14 236 252
875 15 236 253
876 6 237 238
877 7 237 239
878 8 237 240
879 9 237 241
880 10 237 242
881 11 237 243
882 16 237 246
883 17 237 247
884 18 237 248
885 19 237 254
886 20 237 255
887 6 238 239
888 7 238 240
889 8 238 241
890 9 238 242
891 10 238 243
892 21 238 247
893 12 238 248
894 13 238 249
895 14 238 255
896 15 238 256
897 6 239 240
898 7 239 241
899 8 239 242
900 9 239 243
901 16 239 249
902 17 239 250
903 22 239 251
904 3 239 257
905 6 240 241
906 7 240 242
907 8 240 243
908 3 240 244
909 22 240 250
910 17 240 251
911 16 240 252
912 6 241 242
913 7 241 243
914 15 241 245
915 14 241 246
916 13 241 252
917 12 241 253
918 21 241 254
919 6 242 243
920 20 242 246
921 19 242 247
922 18 242 253
923 17 242 254
924 16 242 255
925 15 243 248
926 14 243 249
927 13 243 255
928 12 243 256
929 4 243 257
930 5 244 251
931 5 244 252
932 2 245 246
933 23 245 252
934 24 245 253
935 2 246 247
936 23 246 253
937 24 246 254
938 2 247 248
939 23 247 254
940 24 247 255
941 2 248 249
942 23 248 255
943 24 248 256
944 2 249 250
945 23 249 256
946 5 249 257
947 2 250 251
948 5 250 257
949 2 251 252
950 2 252 253
951 2 253 254
952 2 254 255
953 2 255 256
954 2 244 245
955 2 256 257
956 1 235 244
957 1 257 258
958 1 258 259
959 1 259 260
960 1 260 261
961 6 262 263
962 7 262 264
963 8 262 265
964 9 262 266
965 10 262 267
966 11 262 268
967 4 262 270
968 12 262 271
969 13 262 272
970 14 262 278
971 15 262 279
972 6 263 264
973 7 263 265
974 8 263 266
975 9 263 267
976 10 263 268
977 11 263 269
978 16 263 272
979 17 263 273
980 18 263 274
981 19 263 280
982 20 263 281
983 6 264 265
984 7 264 266
985 8 264 267
986 9 264 268
987 10 264 269
988 21 264 273
989 12 264 274
990 13 264 275
991 14 264 281
992 15 264 282
993 6 265 266
994 7 265 267
995 8 265 268
996 9 265 269
997 16 265 275
998 17 265 276
999 22 265 277
1000 3 265 283
1001 6 266 267
1002 7 266 268
1003 8 266 269
1004 3 266 270
1005 22 266 276
1006 17 266 277
1007 16 266 278
1008 6 267 268
1009 7 267 269
1010 15 267 271
1011 14 267 272
1012 13 267 278
1013 12 267 279
1014 21 267 280
1015 6 268 269
1016 20 268 272
1017 19 268 273
1018 18 268 279
1019 17 268 280
1020 16 268 281
1021 15 269 274
1022 14 269 275
1023 13 269 281
1024 12 269 282
1025 4 269 283
1026 5 270 277
1027 5 270 278
1028 2 271 272
1029 23 271 278
1030 24 271 279
1031 2 272 273
1032 23 272 279
1033 24 272 280
1034 2 273 274
1035 23 273 280
1036 24 273 281
1037 2 274 275
1038 23 274 281
1039 24 274 282
1040 2 275 276
1041 23 275 282
1042 5 275 283
1043 2 276 277
1044 5 276 283
1045 2 277 278
1046 2 278 279
1047 2 279 280
1048 2 280 281
1049 2 281 282
1050 2 270 271
1051 2 282 283
1052 1 261 270
1053 1 283 284
1054 1 284 285
1055 1 285 286
1056 1 286 287
1057 6 288 289
1058 7 288 290
1059 8 288 291
1060 9 288 292
1061 10 288 293
1062 11 288 294
1063 4 288 296
1064 12 288 297
1065 13 288 298
1066 14 288 304
1067 15 288 305
1068 6 289 290
1069 7 289 291
1070 8 289 292
1071 9 289 293
1072 10 289 294
1073 11 289 295
1074 16 289 298
1075 17 289 299
1076 18 289 300
1077 19 289 306
1078 20 289 307
1079 6 290 291
1080 7 290 292
1081 8 290 293
1082 9 290 294
1083 10 290 295
1084 21 290 299
1085 12 290 300
1086 13 290 301
1087 14 290 307
1088 15 290 308
1089 6 291 292
1090 7 291 293
1091 8 291 294
1092 9 291 295
1093 16 291 301
1094 17 291 302
1095 22 291 303
1096 3 291 309
1097 6 292 293
1098 7 292 294
1099 8 292 295
1100 3 292 296
1101 22 292 302
1102 17 292 303
1103 16 292 304
1104 6 293 294
1105 7 293 295
1106 15 293 297
1107 14 293 298
1108 13 293 304
1109 12 293 305
1110 21 293 306
1111 6 294 295
1112 20 294 298
1113 19 294 299
1114 18 294 305
1115 17 294 306
1116 16 294 307
1117 15 295 300
1118 14 295 301
1119 13 295 307
1120 12 295 308
1121 4 295 309
1122 5 296 303
1123 5 296 304
1124 2 297 298
1125 23 297 304
1126 24 297 305
1127 2 298 299
1128 23 298 305
1129 24 298 306
1130 2 299 300
1131 23 299 306
1132 24 299 307
1133 2 300 301
1134 23 300 307
1135 24 300 308
1136 2 301 302
1137 23 301 308
1138 5 301 309
1139 2 302 303
1140 5 302 309
1141 2 303 304
1142 2 304 305
1143 2 305 306
1144 2 306 307
1145 2 307 308
1146 2 296 297
1147 2 308 309
1148 1 287 296
1149 1 309 310

Angles

1 1 10 11 12
2 1 11 12 13
3 1 12 13 14
4 1 13 14 15
5 1 14 15 16
6 1 15 16 17
7 1 16 17 18
8 1 17 18 19
9 1 18 19 20
10 1 19 20 21
11 1 20 21 22
12 1 21 22 23
13 1 1 10 11
14 1 22 23 24
15 1 23 24 25
16 1 24 25 26
17 1 25 26 27
18 1 36 37 38
19 1 37 38 39
20 1 38 39 40
21 1 39 40 41
22 1 40 41 42
23 1 41 42 43
24 1 42 43 44
25 1 43 44 45
26 1 44 45 46
27 1 45 46 47
28 1 46 47 48
29 1 47 48 49
30 1 27 36 37
31 1 26 27 36
32 1 48 49 50
33 1 49 50 51
34 1 50 51 52
35 1 51 52 53
36 1 62 63 64
37 1 63 64 65
38 1 64 65 66
39 1 65 66 67
40 1 66 67 68
41 1 67 68 69
42 1 68 69 70
43 1 69 70 71
44 1 70 71 72
45 1 71 72 73
46 1 72 73 74
47 1 73 74 75
48 1 53 62 63
49 1 52 53 62
50 1 74 75 76
51 1 75 76 77
52 1 76 77 78
53 1 77 78 79
54 1 88 89 90
55 1 89 90 91
56 1 90 91 92
57 1 91 92 93
58 1 92 93 94
59 1 93 94 95
60 1 94 95 96
61 1 95 96 97
62 1 96 97 98
63 1 97 98 99
64 1 98 99 100
65 1 99 100 101
66 1 79 88 89
67 1 78 79 88
68 1 100 101 102
69 1 101 102 103
70 1 102 103 104
71 1 103 104 105
72 1 114 115 116
73 1 115 116 117
74 1 116 117 118
75 1 117 118 119
76 1 118 119 120
77 1 119 120 121
78 1 120 121 122
79 1 121 122 123
80 1 122 123 124
81 1 123 124 125
82 1 124 125 126
83 1 125 126 127
84 1 105 114 115
85 1 104 105 114
86 1 126 127 128
87 1 127 128 129
88 1 128 129 130
89 1 129 130 131
90 1 140 141 142
91 1 141 142 143
92 1 142 143 144
93 1 143 144 145
94 1 144 145 146
95 1 145 146 147
96 1 146 147 148
97 1 147 148 149
98 1 148 149 150
99 1 149 150 151
100 1 150 151 152
101 1 151 152 153
102 1 131 140 141
103 1 130 131 140
104 1 152 153 154
105 1 153 154 155
106 1 154 155 156
107 1 155 156 157
108 1 166 167 168
109 1 167 168 169
110 1 168 169 170
111 1 169 170 171
112 1 170 171 172
113 1 171 172 173
114 1 172 173 174
115 1 173 174 175
116 1 174 175 176
117 1 175 176 177
118 1 176 177 178
119 1 177 178 179
120 1 157 166 167
121 1 156 157 166
122 1 178 179 180
123 1 179 180 181
124 1 180 181 182
125 1 181 182 183
126 1 192 193 194
127 1 193 194 195
128 1 194 195 196
129 1 195 196 197
130 1 196 197 198
131 1 197 198 199
132 1 198 199 200
133 1 199 200 201
134 1 200 201 202
135 1 201 202 203
136 1 202 203 204