LAMMPS data file

14122 atoms
50676 bonds
9968 angles

20 atom types
31 bond types
1 angle types

-800.0 800.0 xlo xhi
-800.0 800.0 ylo yhi
-800.0 800.0 zlo zhi

Masses

1 1.0
2 1.0
3 1.0
4 1.0
5 1.0
6 1.0
7 1.0
8 1.0
9 1.0
10 1.0
11 1.0
12 1.0
13 1.0
14 1.0
15 1.0
16 1.0
17 1.0
18 1.0
19 1.0
20 1.0

Atoms # index molecule type q x y z

1 1 4 0.000 -681.889 -638.705 -639.129
2 1 5 0.000 -690.759 -643.188 -657.147
3 1 6 0.000 -683.404 -631.058 -672.053
4 1 7 0.000 -674.370 -614.400 -664.034
5 1 7 0.000 -680.498 -611.485 -644.608
6 1 6 0.000 -697.907 -621.804 -640.882
7 1 5 0.000 -707.299 -626.759 -658.508
8 1 4 0.000 -700.332 -615.085 -673.955
9 1 3 -0.000 -658.806 -620.262 -620.749
10 1 2 -0.000 -683.918 -640.130 -615.834
11 1 2 -0.000 -702.861 -656.950 -636.027
12 1 2 -0.000 -704.778 -658.248 -668.341
13 1 2 -0.000 -689.916 -641.679 -691.880
14 1 2 -0.000 -669.473 -616.551 -691.475
15 1 2 -0.000 -658.285 -597.757 -667.577
16 1 2 -0.000 -665.150 -596.059 -635.962
17 1 2 -0.000 -687.091 -611.064 -617.443
18 1 2 -0.000 -711.292 -631.483 -624.286
19 1 2 -0.000 -723.467 -642.495 -652.215
20 1 2 -0.000 -717.171 -635.417 -683.195
21 1 2 -0.000 -698.013 -613.365 -697.202
22 1 3 -0.000 -679.990 -589.227 -685.284
23 1 1 -7.350 -672.128 -569.057 -659.386
24 1 1 -7.350 -664.266 -548.888 -633.488
25 1 1 -7.350 -656.404 -528.719 -607.590
26 1 4 0.000 -646.348 -498.197 -548.544
27 1 5 0.000 -654.653 -496.798 -529.769
28 1 6 0.000 -673.686 -504.619 -529.671
29 1 7 0.000 -681.131 -505.789 -548.819
30 1 7 0.000 -670.509 -493.527 -561.478
31 1 6 0.000 -660.034 -479.410 -550.783
32 1 5 0.000 -667.718 -477.549 -531.785
33 1 4 0.000 -686.756 -485.306 -530.884
34 1 3 -0.000 -648.542 -508.550 -581.691
35 1 2 -0.000 -629.971 -489.714 -562.987
36 1 2 -0.000 -630.249 -483.230 -531.248
37 1 2 -0.000 -650.428 -491.597 -507.325
38 1 2 -0.000 -678.577 -507.628 -506.970
39 1 2 -0.000 -697.567 -519.135 -530.561
40 1 2 -0.000 -696.241 -516.881 -562.851
41 1 2 -0.000 -676.700 -500.607 -582.921
42 1 2 -0.000 -652.924 -479.201 -577.823
43 1 2 -0.000 -641.659 -464.897 -551.027
44 1 2 -0.000 -651.488 -465.299 -520.160
45 1 2 -0.000 -677.231 -478.413 -505.505
46 1 2 -0.000 -703.329 -493.956 -516.767
47 1 3 -0.000 -713.989 -500.057 -546.744
48 1 20 5.000 -702.258 -522.212 -599.178
49 1 20 5.000 -719.794 -537.172 -628.382
50 1 1 -7.350 -710.757 -494.297 -572.225
51 1 1 -7.350 -707.526 -488.536 -597.706
52 1 1 -7.350 -704.294 -482.776 -623.187
53 1 1 -7.350 -701.062 -477.016 -648.668
54 1 4 0.000 -682.335 -460.745 -703.478
55 1 5 0.000 -667.603 -449.900 -712.900
56 1 6 0.000 -656.362 -439.496 -699.158
57 1 7 0.000 -666.447 -437.875 -681.295
58 1 7 0.000 -686.545 -441.377 -683.984
59 1 6 0.000 -691.660 -439.338 -703.811
60 1 5 0.000 -677.272 -428.669 -713.939
61 1 4 0.000 -665.516 -418.074 -700.787
62 1 3 -0.000 -697.831 -471.255 -674.149
63 1 2 -0.000 -703.066 -471.330 -706.119
64 1 2 -0.000 -685.245 -461.410 -731.289
65 1 2 -0.000 -656.819 -446.004 -733.324
66 1 2 -0.000 -637.158 -433.202 -710.985
67 1 2 -0.000 -639.912 -429.395 -678.932
68 1 2 -0.000 -664.110 -435.104 -658.162
69 1 2 -0.000 -694.789 -444.645 -662.313
70 1 2 -0.000 -712.761 -449.830 -688.764
71 1 2 -0.000 -707.125 -445.317 -720.345
72 1 2 -0.000 -682.382 -432.088 -736.541
73 1 2 -0.000 -655.500 -416.812 -726.872
74 1 2 -0.000 -644.840 -407.494 -697.734
75 1 3 -0.000 -658.181 -408.251 -668.222
76 1 20 5.000 -683.828 -440.243 -627.033
77 1 20 5.000 -688.691 -440.652 -590.150
78 1 1 -7.350 -670.850 -408.807 -659.099
79 1 1 -7.350 -683.519 -409.364 -649.975
80 1 1 -7.350 -696.188 -409.921 -640.852
81 1 1 -7.350 -708.857 -410.478 -631.729
82 1 1 -7.350 -721.526 -411.035 -622.605
83 1 1 -7.350 -734.195 -411.591 -613.482
84 1 1 -7.350 -746.864 -412.148 -604.359
85 1 4 0.000 -793.402 -410.696 -587.514
86 1 5 0.000 -812.855 -407.686 -593.510
87 1 6 0.000 -813.624 -403.100 -613.555
88 1 7 0.000 -795.203 -396.849 -620.265
89 1 7 0.000 -783.311 -391.119 -604.479
90 1 6 0.000 -794.745 -387.384 -587.784
91 1 5 0.000 -814.423 -384.392 -593.006
92 1 4 0.000 -815.995 -379.875 -613.020
93 1 3 -0.000 -759.533 -412.705 -595.235
94 1 2 -0.000 -778.770 -411.032 -569.223
95 1 2 -0.000 -810.975 -410.507 -565.754
96 1 2 -0.000 -835.321 -409.351 -587.096
97 1 2 -0.000 -836.105 -406.196 -619.329
98 1 2 -0.000 -812.998 -400.979 -641.428
99 1 2 -0.000 -781.256 -394.982 -638.980
100 1 2 -0.000 -761.769 -389.995 -613.585
101 1 2 -0.000 -767.431 -387.150 -581.815
102 1 2 -0.000 -794.730 -386.181 -564.399
103 1 2 -0.000 -826.038 -385.599 -572.702
104 1 2 -0.000 -841.113 -383.662 -601.312
105 1 2 -0.000 -830.300 -379.512 -631.567
106 1 3 -0.000 -800.836 -373.734 -643.733
107 1 20 5.000 -745.210 -390.272 -646.901
108 1 20 5.000 -715.994 -387.810 -669.805
109 1 1 -7.350 -757.057 -373.687 -635.796
110 1 1 -7.350 -713.279 -373.641 -627.858
111 1 10 0.000 -639.761 -374.239 -601.868
112 1 11 0.000 -629.693 -371.729 -584.098
113 1 12 0.000 -642.509 -365.225 -569.372
114 1 13 0.000 -659.621 -357.329 -577.635
115 1 13 0.000 -656.567 -352.546 -597.415
116 1 12 0.000 -636.449 -351.126 -601.498
117 1 11 0.000 -625.688 -348.723 -584.124
118 1 10 0.000 -637.917 -342.335 -568.858
119 1 9 -0.000 -669.500 -373.594 -619.921
120 1 8 -0.000 -637.591 -375.580 -625.154
121 1 8 -0.000 -612.143 -377.185 -605.172
122 1 8 -0.000 -609.399 -375.264 -572.949
123 1 8 -0.000 -630.791 -368.972 -549.449
124 1 8 -0.000 -662.005 -360.315 -549.941
125 1 8 -0.000 -682.319 -352.843 -574.045
126 1 8 -0.000 -678.123 -349.332 -605.975
127 1 8 -0.000 -651.795 -349.975 -624.842
128 1 8 -0.000 -620.153 -352.253 -618.275
129 1 8 -0.000 -603.482 -352.582 -590.500
130 1 8 -0.000 -612.299 -348.650 -559.576
131 1 8 -0.000 -640.494 -340.923 -545.617
132 1 9 -0.000 -669.315 -332.344 -557.670
133 1 1 -7.350 -676.643 -327.650 -570.583
134 1 1 -7.350 -683.971 -322.956 -583.495
135 1 1 -7.350 -691.299 -318.262 -596.407
136 1 1 -7.350 -698.626 -313.568 -609.320
137 1 1 -7.350 -705.954 -308.875 -622.232
138 1 1 -7.350 -713.282 -304.181 -635.145
139 1 1 -7.350 -720.610 -299.487 -648.057
140 1 16 0.000 -732.838 -284.561 -693.864
141 1 17 0.000 -725.536 -281.829 -712.908
142 1 18 0.000 -705.605 -286.868 -713.811
143 1 19 0.000 -697.345 -287.140 -694.966
144 1 19 0.000 -709.105 -276.624 -681.754
145 1 18 0.000 -721.873 -264.041 -691.859
146 1 17 0.000 -715.259 -260.939 -711.096
147 1 16 0.000 -695.363 -265.906 -712.801
148 1 15 -0.000 -727.938 -294.793 -660.969
149 1 14 -0.000 -749.687 -278.618 -678.713
150 1 14 -0.000 -751.540 -271.876 -710.346
151 1 14 -0.000 -731.307 -277.080 -735.106
152 1 14 -0.000 -701.207 -288.949 -736.715
153 1 14 -0.000 -679.895 -297.854 -713.999
154 1 14 -0.000 -680.293 -296.100 -681.653
155 1 14 -0.000 -701.162 -282.945 -660.654
156 1 14 -0.000 -727.904 -265.085 -664.577
157 1 14 -0.000 -742.094 -252.287 -690.738
158 1 14 -0.000 -733.491 -251.014 -721.945
159 1 14 -0.000 -706.728 -260.209 -737.715
160 1 14 -0.000 -678.283 -271.990 -727.635
161 1 15 -0.000 -665.732 -276.784 -698.156
162 1 20 5.000 -672.203 -300.847 -645.650
163 1 20 5.000 -651.626 -313.426 -617.321
164 1 1 -7.350 -667.956 -275.809 -672.479
165 1 1 -7.350 -670.179 -274.835 -646.802
166 1 1 -7.350 -672.402 -273.861 -621.126
167 1 1 -7.350 -674.626 -272.887 -595.449
168 1 4 0.000 -687.470 -259.478 -539.059
169 1 5 0.000 -697.974 -245.499 -528.210
170 1 6 0.000 -706.101 -231.280 -540.668
171 1 7 0.000 -696.633 -231.398 -558.937
172 1 7 0.000 -678.398 -240.836 -557.580
173 1 6 0.000 -672.206 -241.839 -537.982
174 1 5 0.000 -682.408 -228.180 -526.458
175 1 4 0.000 -690.949 -213.671 -538.289
176 1 3 -0.000 -676.849 -271.912 -569.772
177 1 2 -0.000 -670.737 -275.849 -538.203
178 1 2 -0.000 -683.901 -262.990 -511.540
179 1 2 -0.000 -706.380 -240.104 -507.023
180 1 2 -0.000 -722.138 -220.501 -527.441
181 1 2 -0.000 -719.521 -215.348 -559.318
182 1 2 -0.000 -698.865 -226.387 -581.700
183 1 2 -0.000 -672.273 -244.795 -579.830
184 1 2 -0.000 -655.721 -256.943 -554.771
185 1 2 -0.000 -658.634 -253.284 -522.714
186 1 2 -0.000 -677.741 -234.585 -504.417
187 1 2 -0.000 -699.203 -211.424 -511.659
188 1 2 -0.000 -707.647 -197.290 -539.559
189 1 3 -0.000 -696.192 -199.783 -569.760
190 1 1 -7.350 -685.789 -205.808 -578.636
191 1 1 -7.350 -675.385 -211.832 -587.511
192 1 1 -7.350 -664.982 -217.856 -596.387
193 1 1 -7.350 -654.579 -223.880 -605.263
194 1 1 -7.350 -644.175 -229.904 -614.138
195 1 1 -7.350 -633.772 -235.929 -623.014
196 1 1 -7.350 -623.369 -241.953 -631.890
197 1 1 -7.350 -612.965 -247.977 -640.765
198 1 4 0.000 -578.317 -276.338 -660.777
199 1 5 0.000 -562.936 -289.380 -656.680
200 1 6 0.000 -558.868 -289.669 -636.510
201 1 7 0.000 -566.609 -272.962 -627.323
202 1 7 0.000 -570.516 -258.245 -641.164
203 1 6 0.000 -560.186 -261.782 -658.606
204 1 5 0.000 -544.674 -274.892 -655.301
205 1 4 0.000 -540.116 -275.809 -635.255
206 1 3 -0.000 -602.562 -254.001 -649.641
207 1 2 -0.000 -588.572 -263.322 -677.335
208 1 2 -0.000 -566.510 -286.027 -684.209
209 1 2 -0.000 -549.079 -306.019 -665.609
210 1 2 -0.000 -545.960 -308.972 -633.499
211 1 2 -0.000 -557.498 -291.674 -608.656
212 1 2 -0.000 -574.476 -264.127 -607.118
213 1 2 -0.000 -584.129 -243.016 -629.716
214 1 2 -0.000 -578.467 -240.831 -661.539
215 1 2 -0.000 -559.496 -257.712 -681.654
216 1 2 -0.000 -537.902 -281.362 -676.770
217 1 2 -0.000 -526.082 -295.068 -649.901
218 1 2 -0.000 -530.058 -288.604 -618.406
219 1 3 -0.000 -545.545 -264.902 -602.662
220 1 1 -7.350 -567.352 -229.110 -604.868
221 1 1 -7.350 -589.159 -193.317 -607.073
222 1 10 0.000 -621.500 -127.108 -622.493
223 1 11 0.000 -622.244 -113.862 -638.222
224 1 12 0.000 -611.355 -120.951 -654.178
225 1 13 0.000 -598.192 -135.533 -648.053
226 1 13 0.000 -595.221 -134.525 -627.716
227 1 12 0.000 -600.979 -116.150 -620.461
228 1 11 0.000 -602.074 -102.368 -635.701
229 1 10 0.000 -591.485 -108.859 -652.107
230 1 9 -0.000 -610.965 -157.525 -609.279
231 1 8 -0.000 -624.042 -129.602 -599.339
232 1 8 -0.000 -633.940 -103.143 -615.196
233 1 8 -0.000 -632.360 -94.357 -646.338
234 1 8 -0.000 -618.488 -107.923 -672.281
235 1 8 -0.000 -599.531 -133.939 -675.933
236 1 8 -0.000 -586.012 -154.378 -654.744
237 1 8 -0.000 -584.908 -154.855 -622.370
238 1 8 -0.000 -595.095 -134.006 -599.764
239 1 8 -0.000 -608.084 -104.379 -601.507
240 1 8 -0.000 -613.558 -84.250 -626.294
241 1 8 -0.000 -606.102 -85.698 -657.787
242 1 8 -0.000 -588.737 -106.727 -675.273
243 1 9 -0.000 -570.948 -132.563 -667.178
244 1 1 -7.350 -559.840 -152.798 -643.909
245 1 1 -7.350 -548.733 -173.032 -620.640
246 1 1 -7.350 -537.625 -193.266 -597.370
247 1 16 0.000 -518.721 -225.462 -542.369
248 1 17 0.000 -516.604 -222.194 -522.163
249 1 18 0.000 -520.139 -202.440 -517.614
250 1 19 0.000 -518.623 -190.744 -534.477
251 1 19 0.000 -508.256 -200.640 -549.243
252 1 18 0.000 -497.334 -216.151 -541.270
253 1 17 0.000 -494.913 -213.626 -520.992
254 1 16 0.000 -498.428 -194.064 -515.661
255 1 15 -0.000 -526.518 -213.501 -574.101
256 1 14 -0.000 -513.179 -239.564 -560.235
257 1 14 -0.000 -508.545 -248.001 -529.302
258 1 14 -0.000 -513.678 -232.488 -501.328
259 1 14 -0.000 -523.270 -202.328 -494.409
260 1 14 -0.000 -529.104 -176.378 -512.905
261 1 14 -0.000 -525.413 -170.749 -544.594
262 1 14 -0.000 -512.646 -188.295 -568.649
263 1 14 -0.000 -497.172 -216.751 -569.223
264 1 14 -0.000 -487.126 -236.734 -545.786
265 1 14 -0.000 -487.102 -234.389 -513.475
266 1 14 -0.000 -495.156 -210.428 -493.214
267 1 14 -0.000 -504.073 -179.664 -498.067
268 1 15 -0.000 -506.077 -161.349 -524.714
269 1 1 -7.350 -501.960 -159.770 -545.984
270 1 1 -7.350 -497.843 -158.191 -567.254
271 1 1 -7.350 -493.726 -156.612 -588.524
272 1 1 -7.350 -489.609 -155.034 -609.794
273 1 1 -7.350 -485.492 -153.455 -631.064
274 1 10 0.000 -471.938 -160.442 -684.712
275 1 11 0.000 -462.706 -173.487 -697.676
276 1 12 0.000 -454.216 -189.143 -687.368
277 1 13 0.000 -451.928 -184.332 -667.492
278 1 13 0.000 -452.827 -163.947 -664.828
279 1 12 0.000 -449.541 -154.167 -682.632
280 1 11 0.000 -440.419 -166.676 -696.187
281 1 10 0.000 -431.786 -182.697 -686.584
282 1 9 -0.000 -481.375 -151.876 -652.334
283 1 8 -0.000 -479.785 -138.560 -681.824
284 1 8 -0.000 -471.352 -150.356 -710.794
285 1 8 -0.000 -459.528 -179.008 -720.216
286 1 8 -0.000 -449.977 -205.262 -703.815
287 1 8 -0.000 -446.879 -211.430 -672.162
288 1 8 -0.000 -450.205 -192.926 -645.780
289 1 8 -0.000 -455.736 -161.260 -641.750
290 1 8 -0.000 -457.812 -136.531 -662.574
291 1 8 -0.000 -453.030 -134.309 -694.538
292 1 8 -0.000 -442.458 -155.483 -716.661
293 1 8 -0.000 -430.944 -185.678 -714.382
294 1 8 -0.000 -423.949 -204.634 -689.059
295 1 9 -0.000 -423.986 -199.423 -657.085
296 1 20 5.000 -453.850 -181.471 -610.570
297 1 20 5.000 -454.826 -186.333 -573.697
298 1 1 -7.350 -424.476 -187.739 -643.054
299 1 1 -7.350 -424.965 -176.054 -629.022
300 1 1 -7.350 -425.455 -164.369 -614.991
301 1 1 -7.350 -425.944 -152.685 -600.959
302 1 1 -7.350 -426.433 -141.000 -586.928
303 1 1 -7.350 -426.923 -129.316 -572.897
304 1 4 0.000 -427.188 -87.389 -541.657
305 1 5 0.000 -425.177 -66.910 -541.726
306 1 6 0.000 -420.585 -60.150 -560.611
307 1 7 0.000 -413.367 -75.513 -572.244
308 1 7 0.000 -407.068 -91.167 -560.467
309 1 6 0.000 -403.977 -84.884 -541.118
310 1 5 0.000 -401.998 -64.415 -540.382
311 1 4 0.000 -397.516 -56.900 -559.006
312 1 3 -0.000 -427.412 -117.631 -558.865
313 1 2 -0.000 -426.811 -106.685 -528.380
314 1 2 -0.000 -427.970 -76.875 -515.750
315 1 2 -0.000 -428.025 -47.370 -529.128
316 1 2 -0.000 -424.831 -37.140 -559.700
317 1 2 -0.000 -418.361 -52.581 -587.435
318 1 2 -0.000 -410.727 -83.339 -594.153
319 1 2 -0.000 -404.801 -109.071 -575.385
320 1 2 -0.000 -402.338 -112.711 -543.288
321 1 2 -0.000 -402.837 -91.605 -518.716
322 1 2 -0.000 -403.862 -59.244 -517.613
323 1 2 -0.000 -402.635 -36.461 -540.612
324 1 2 -0.000 -397.848 -37.841 -572.622
325 1 3 -0.000 -390.514 -62.205 -592.675
326 1 1 -7.350 -386.911 -76.579 -594.437
327 1 1 -7.350 -383.308 -90.954 -596.199
328 1 1 -7.350 -379.705 -105.329 -597.961
329 1 1 -7.350 -376.103 -119.703 -599.724
330 1 1 -7.350 -372.500 -134.078 -601.486
331 1 1 -7.350 -368.897 -148.453 -603.248
332 1 1 -7.350 -365.294 -162.827 -605.010
333 1 1 -7.350 -361.692 -177.202 -606.772
334 1 16 0.000 -354.449 -225.323 -600.870
335 1 17 0.000 -350.406 -240.097 -587.130
336 1 18 0.000 -345.596 -231.893 -568.882
337 1 19 0.000 -340.218 -212.146 -571.014
338 1 19 0.000 -335.245 -208.066 -590.560
339 1 18 0.000 -331.098 -225.453 -600.755
340 1 17 0.000 -327.068 -240.766 -587.614
341 1 16 0.000 -322.287 -233.300 -569.044
342 1 15 -0.000 -358.089 -191.577 -608.534
343 1 14 -0.000 -355.697 -220.116 -623.676
344 1 14 -0.000 -353.582 -250.579 -612.858
345 1 14 -0.000 -350.997 -263.166 -583.119
346 1 14 -0.000 -347.500 -249.740 -553.844
347 1 14 -0.000 -343.244 -219.135 -544.114
348 1 14 -0.000 -338.878 -191.390 -560.259
349 1 14 -0.000 -335.121 -184.681 -591.729
350 1 14 -0.000 -332.298 -203.459 -617.977
351 1 14 -0.000 -330.121 -235.547 -621.861
352 1 14 -0.000 -327.883 -260.087 -600.830
353 1 14 -0.000 -324.915 -261.143 -568.587
354 1 14 -0.000 -321.027 -238.100 -546.150
355 1 15 -0.000 -316.625 -206.066 -548.139
356 1 1 -7.350 -313.231 -193.844 -557.686
357 1 1 -7.350 -309.836 -181.622 -567.233
358 1 1 -7.350 -306.442 -169.399 -576.781
359 1 1 -7.350 -303.047 -157.177 -586.328
360 1 1 -7.350 -299.652 -144.954 -595.875
361 1 1 -7.350 -296.258 -132.732 -605.423
362 1 1 -7.350 -292.863 -120.510 -614.970
363 1 4 0.000 -281.395 -90.467 -653.293
364 1 5 0.000 -277.305 -90.168 -673.457
365 1 6 0.000 -277.273 -109.265 -681.122
366 1 7 0.000 -275.135 -123.111 -666.051
367 1 7 0.000 -267.605 -114.237 -649.081
368 1 6 0.000 -258.766 -96.223 -653.644
369 1 5 0.000 -254.491 -95.143 -673.744
370 1 4 0.000 -254.414 -113.925 -682.149
371 1 3 -0.000 -289.469 -108.287 -624.517
372 1 2 -0.000 -279.517 -78.686 -633.132
373 1 2 -0.000 -274.047 -64.900 -661.934
374 1 2 -0.000 -274.555 -76.409 -692.212
375 1 2 -0.000 -278.637 -106.190 -704.294
376 1 2 -0.000 -281.559 -135.298 -690.378
377 1 2 -0.000 -279.342 -145.230 -659.621
378 1 2 -0.000 -271.361 -129.990 -632.170
379 1 2 -0.000 -260.751 -100.007 -626.013
380 1 2 -0.000 -252.361 -75.325 -645.246
381 1 2 -0.000 -249.593 -72.532 -677.403
382 1 2 -0.000 -252.181 -93.935 -701.584
383 1 2 -0.000 -256.365 -126.055 -702.094
384 1 3 -0.000 -257.343 -148.424 -678.681
385 1 1 -7.350 -256.433 -153.033 -660.853
386 1 1 -7.350 -255.523 -157.641 -643.026
387 1 1 -7.350 -254.613 -162.250 -625.198
388 1 1 -7.350 -253.703 -166.859 -607.370
389 1 1 -7.350 -252.793 -171.468 -589.543
390 1 1 -7.350 -251.884 -176.076 -571.715
391 1 4 0.000 -240.755 -178.634 -520.689
392 1 5 0.000 -229.309 -169.659 -506.133
393 1 6 0.000 -217.457 -154.947 -514.290
394 1 7 0.000 -215.738 -157.487 -534.638
395 1 7 0.000 -220.844 -176.688 -539.994
396 1 6 0.000 -220.138 -189.190 -523.664
397 1 5 0.000 -208.927 -180.787 -508.593
398 1 4 0.000 -196.875 -165.845 -516.004
399 1 3 -0.000 -250.974 -180.685 -553.888
400 1 2 -0.000 -252.962 -197.782 -526.443
401 1 2 -0.000 -242.959 -191.944 -496.188
402 1 2 -0.000 -225.603 -167.940 -483.069
403 1 2 -0.000 -210.328 -142.392 -495.855
404 1 2 -0.000 -205.211 -132.928 -526.413
405 1 2 -0.000 -211.701 -146.685 -555.016
406 1 2 -0.000 -223.677 -175.649 -563.213
407 1 2 -0.000 -231.436 -201.886 -545.866
408 1 2 -0.000 -228.029 -209.241 -514.500
409 1 2 -0.000 -213.790 -193.877 -489.788
410 1 2 -0.000 -196.119 -166.780 -488.059
411 1 2 -0.000 -184.657 -146.588 -510.652
412 1 3 -0.000 -184.993 -147.436 -543.035
413 1 1 -7.350 -198.299 -162.042 -569.622
414 1 1 -7.350 -211.605 -176.647 -596.209
415 1 1 -7.350 -224.911 -191.253 -622.796
416 1 4 0.000 -256.152 -228.560 -668.715
417 1 5 0.000 -266.195 -246.442 -670.398
418 1 6 0.000 -265.356 -256.910 -652.702
419 1 7 0.000 -250.093 -249.860 -640.836
420 1 7 0.000 -236.576 -239.131 -652.043
421 1 6 0.000 -238.589 -243.588 -672.031
422 1 5 0.000 -248.691 -261.343 -674.508
423 1 4 0.000 -248.387 -272.333 -657.113
424 1 3 -0.000 -238.217 -205.858 -649.383
425 1 2 -0.000 -245.483 -211.338 -680.475
426 1 2 -0.000 -264.079 -233.480 -695.083
427 1 2 -0.000 -280.309 -259.242 -684.020
428 1 2 -0.000 -282.018 -273.221 -654.846
429 1 2 -0.000 -266.528 -267.699 -626.934
430 1 2 -0.000 -242.377 -247.682 -618.837
431 1 2 -0.000 -223.757 -227.631 -636.179
432 1 2 -0.000 -221.250 -222.029 -667.989
433 1 2 -0.000 -234.926 -235.935 -693.856
434 1 2 -0.000 -254.298 -261.679 -697.247
435 1 2 -0.000 -265.163 -283.868 -676.293
436 1 2 -0.000 -258.867 -289.430 -645.005
437 1 3 -0.000 -237.953 -276.139 -624.137
438 1 1 -7.350 -225.741 -267.678 -622.656
439 1 1 -7.350 -213.530 -259.217 -621.174
440 1 1 -7.350 -201.318 -250.756 -619.692
441 1 1 -7.350 -189.106 -242.295 -618.211
442 1 1 -7.350 -176.894 -233.835 -616.729
443 1 1 -7.350 -164.682 -225.374 -615.248
444 1 1 -7.350 -152.470 -216.913 -613.766
445 1 4 0.000 -110.298 -195.321 -624.148
446 1 5 0.000 -98.140 -190.229 -639.949
447 1 6 0.000 -106.878 -195.528 -657.809
448 1 7 0.000 -121.690 -209.484 -654.762
449 1 7 0.000 -119.451 -218.529 -636.416
450 1 6 0.000 -100.341 -215.809 -629.286
451 1 5 0.000 -87.596 -210.548 -644.561
452 1 4 0.000 -95.754 -215.443 -662.807
453 1 3 -0.000 -140.258 -208.452 -612.284
454 1 2 -0.000 -111.060 -199.869 -601.181
455 1 2 -0.000 -85.258 -186.420 -615.425
456 1 2 -0.000 -78.724 -178.717 -646.206
457 1 2 -0.000 -94.759 -183.624 -673.924
458 1 2 -0.000 -121.940 -199.776 -680.979
459 1 2 -0.000 -141.574 -218.476 -663.249
460 1 2 -0.000 -139.890 -229.360 -632.783
461 1 2 -0.000 -117.025 -227.167 -609.937
462 1 2 -0.000 -86.935 -215.165 -610.099
463 1 2 -0.000 -68.288 -203.022 -633.643
464 1 2 -0.000 -72.288 -200.498 -665.692
465 1 2 -0.000 -95.363 -211.077 -685.819
466 1 3 -0.000 -121.499 -229.696 -681.375
467 1 20 5.000 -170.617 -238.609 -651.612
468 1 20 5.000 -203.812 -254.928 -655.608
469 1 1 -7.350 -130.764 -238.019 -670.253
470 1 1 -7.350 -140.029 -246.343 -659.131
471 1 1 -7.350 -149.294 -254.666 -648.008
472 1 1 -7.350 -158.559 -262.989 -636.886
473 1 1 -7.350 -167.823 -271.312 -625.764
474 1 1 -7.350 -177.088 -279.635 -614.642
475 1 1 -7.350 -186.353 -287.958 -603.519
476 1 4 0.000 -200.804 -310.142 -560.905
477 1 5 0.000 -193.210 -317.626 -543.305
478 1 6 0.000 -172.641 -317.890 -543.828
479 1 7 0.000 -165.875 -316.639 -563.222
480 1 7 0.000 -180.827 -321.649 -576.442
481 1 6 0.000 -195.728 -332.138 -566.884
482 1 5 0.000 -188.881 -339.837 -549.072
483 1 4 0.000 -168.310 -340.289 -548.812
484 1 3 -0.000 -195.618 -296.282 -592.397
485 1 2 -0.000 -219.595 -309.210 -574.862
486 1 2 -0.000 -221.021 -320.287 -544.452
487 1 2 -0.000 -198.522 -324.310 -521.494
488 1 2 -0.000 -166.330 -320.679 -521.452
489 1 2 -0.000 -145.002 -313.787 -544.843
490 1 2 -0.000 -148.007 -310.156 -576.895
491 1 2 -0.000 -172.940 -314.178 -597.184
492 1 2 -0.000 -203.090 -325.254 -592.964
493 1 2 -0.000 -218.343 -338.183 -567.475
494 1 2 -0.000 -208.302 -346.555 -537.833
495 1 2 -0.000 -179.075 -346.932 -523.865
496 1 2 -0.000 -149.282 -341.093 -535.171
497 1 3 -0.000 -137.916 -334.871 -564.863
498 1 20 5.000 -141.386 -301.824 -612.545
499 1 20 5.000 -120.184 -290.336 -640.877
500 1 1 -7.350 -144.879 -333.260 -585.283
501 1 1 -7.350 -151.841 -331.648 -605.702
502 1 1 -7.350 -158.803 -330.037 -626.122
503 1 1 -7.350 -165.765 -328.425 -646.542
504 1 1 -7.350 -172.728 -326.813 -666.961
505 1 4 0.000 -204.940 -326.908 -711.262
506 1 5 0.000 -224.274 -331.751 -716.376
507 1 6 0.000 -234.092 -340.202 -700.388
508 1 7 0.000 -220.626 -346.962 -686.375
509 1 7 0.000 -201.929 -349.044 -694.714
510 1 6 0.000 -203.205 -349.853 -715.236
511 1 5 0.000 -222.360 -354.536 -721.120
512 1 4 0.000 -232.865 -362.943 -705.551
513 1 3 -0.000 -179.690 -325.202 -687.381
514 1 2 -0.000 -183.445 -322.453 -719.441
515 1 2 -0.000 -209.519 -323.477 -738.640
516 1 2 -0.000 -240.784 -329.692 -732.863
517 1 2 -0.000 -256.727 -339.130 -706.288
518 1 2 -0.000 -246.830 -347.720 -676.661
519 1 2 -0.000 -217.433 -351.945 -663.720
520 1 2 -0.000 -187.597 -351.135 -676.317
521 1 2 -0.000 -176.670 -347.904 -706.643
522 1 2 -0.000 -191.664 -346.448 -735.323
523 1 2 -0.000 -222.680 -349.801 -744.057
524 1 2 -0.000 -249.367 -357.864 -727.555
525 1 2 -0.000 -254.198 -367.463 -696.993
526 1 3 -0.000 -233.905 -374.421 -672.719
527 1 1 -7.350 -209.225 -377.282 -667.624
528 1 1 -7.350 -184.545 -380.143 -662.530
529 1 1 -7.350 -159.865 -383.003 -657.436
530 1 1 -7.350 -135.185 -385.864 -652.341
531 1 4 0.000 -78.544 -393.522 -660.140
532 1 5 0.000 -66.177 -396.720 -676.273
533 1 6 0.000 -77.174 -398.618 -693.561
534 1 7 0.000 -96.816 -402.940 -689.209
535 1 7 0.000 -98.569 -410.098 -669.996
536 1 6 0.000 -80.347 -416.627 -663.012
537 1 5 0.000 -67.365 -419.922 -678.634
538 1 4 0.000 -77.675 -421.798 -696.343
539 1 3 -0.000 -110.505 -388.725 -647.247
540 1 2 -0.000 -80.451 -394.868 -636.830
541 1 2 -0.000 -52.038 -397.542 -652.163
542 1 2 -0.000 -43.906 -397.109 -683.518
543 1 2 -0.000 -61.464 -395.961 -710.720
544 1 2 -0.000 -93.361 -396.956 -716.298
545 1 2 -0.000 -118.891 -401.553 -696.893
546 1 2 -0.000 -121.503 -408.862 -665.440
547 1 2 -0.000 -99.596 -416.224 -642.737
548 1 2 -0.000 -67.565 -420.944 -643.873
549 1 2 -0.000 -46.411 -422.052 -668.384
550 1 2 -0.000 -50.038 -420.934 -700.557
551 1 2 -0.000 -76.182 -420.428 -719.681
552 1 3 -0.000 -107.892 -422.973 -713.557
553 1 20 5.000 -153.554 -403.264 -683.485
554 1 20 5.000 -190.607 -401.105 -686.060
555 1 1 -7.350 -128.632 -426.112 -688.353
556 1 1 -7.350 -149.371 -429.252 -663.149
557 1 1 -7.350 -170.110 -432.391 -637.945
558 1 4 0.000 -195.445 -441.469 -578.765
559 1 5 0.000 -188.033 -447.911 -560.682
560 1 6 0.000 -168.777 -454.848 -562.807
561 1 7 0.000 -164.758 -459.126 -582.530
562 1 7 0.000 -182.234 -461.227 -593.189
563 1 6 0.000 -198.085 -464.606 -580.510
564 1 5 0.000 -191.413 -470.973 -562.115
565 1 4 0.000 -172.101 -477.953 -563.437
566 1 3 -0.000 -190.849 -435.531 -612.742
567 1 2 -0.000 -214.868 -436.925 -591.047
568 1 2 -0.000 -215.235 -441.658 -559.001
569 1 2 -0.000 -191.965 -448.755 -537.607
570 1 2 -0.000 -160.496 -455.696 -540.921
571 1 2 -0.000 -141.612 -460.066 -566.879
572 1 2 -0.000 -147.888 -461.126 -598.643
573 1 2 -0.000 -175.485 -460.295 -615.590
574 1 2 -0.000 -206.655 -460.229 -606.762
575 1 2 -0.000 -221.318 -463.081 -578.015
576 1 2 -0.000 -210.163 -469.103 -548.202
577 1 2 -0.000 -180.723 -476.478 -536.870
578 1 2 -0.000 -152.460 -482.507 -551.510
579 1 3 -0.000 -144.066 -485.368 -582.669
580 1 4 0.000 -218.911 -478.244 -722.546
581 1 5 0.000 -239.193 -479.767 -725.665
582 1 6 0.000 -249.121 -481.997 -707.780
583 1 7 0.000 -236.169 -488.175 -693.031
584 1 7 0.000 -219.081 -496.143 -701.274
585 1 6 0.000 -222.255 -501.299 -720.941
586 1 5 0.000 -242.395 -502.884 -724.851
587 1 4 0.000 -253.020 -505.018 -707.358
588 1 3 -0.000 -191.889 -476.726 -700.676
589 1 2 -0.000 -197.743 -480.587 -732.304
590 1 2 -0.000 -225.026 -480.213 -749.768
591 1 2 -0.000 -256.287 -477.946 -741.575
592 1 2 -0.000 -271.479 -477.363 -712.968
593 1 2 -0.000 -261.040 -480.943 -682.510
594 1 2 -0.000 -232.128 -488.449 -669.969
595 1 2 -0.000 -203.953 -497.083 -683.428
596 1 2 -0.000 -195.244 -503.310 -714.004
597 1 2 -0.000 -212.031 -505.166 -741.649
598 1 2 -0.000 -243.710 -503.539 -748.228
599 1 2 -0.000 -269.963 -501.589 -729.347
600 1 2 -0.000 -274.011 -502.686 -697.223
601 1 3 -0.000 -253.561 -508.213 -672.713
602 1 1 -7.350 -238.523 -512.863 -668.584
603 1 1 -7.350 -223.486 -517.513 -664.455
604 1 1 -7.350 -208.449 -522.164 -660.326
605 1 1 -7.350 -193.411 -526.814 -656.197
606 1 1 -7.350 -178.374 -531.464 -652.068
607 1 1 -7.350 -163.336 -536.114 -647.938
608 1 1 -7.350 -148.299 -540.765 -643.809
609 1 4 0.000 -102.404 -559.267 -647.847
610 1 5 0.000 -90.625 -570.018 -660.850
611 1 6 0.000 -101.704 -576.619 -676.885
612 1 7 0.000 -121.802 -576.102 -672.501
613 1 7 0.000 -124.755 -575.228 -652.156
614 1 6 0.000 -107.829 -581.246 -642.119
615 1 5 0.000 -95.460 -591.985 -654.573
616 1 4 0.000 -105.855 -598.823 -670.963
617 1 3 -0.000 -133.262 -545.415 -639.680
618 1 2 -0.000 -104.608 -551.515 -625.851
619 1 2 -0.000 -76.906 -563.816 -637.287
620 1 2 -0.000 -68.663 -576.314 -666.016
621 1 2 -0.000 -85.692 -582.876 -692.783
622 1 2 -0.000 -117.317 -581.241 -699.614
623 1 2 -0.000 -143.343 -574.498 -681.539
624 1 2 -0.000 -147.225 -569.065 -649.838
625 1 2 -0.000 -126.865 -570.508 -624.681
626 1 2 -0.000 -95.981 -579.906 -621.966
627 1 2 -0.000 -75.156 -593.149 -642.953
628 1 2 -0.000 -78.411 -603.617 -673.438
629 1 2 -0.000 -104.056 -606.503 -693.020
630 1 3 -0.000 -135.797 -601.943 -688.413
631 1 20 5.000 -177.901 -566.024 -670.669
632 1 20 5.000 -214.133 -559.630 -676.202
633 1 1 -7.350 -158.020 -590.510 -666.733
634 1 1 -7.350 -180.242 -579.077 -645.054
635 1 1 -7.350 -202.465 -567.643 -623.375
636 1 4 0.000 -235.776 -543.424 -571.292
637 1 5 0.000 -232.356 -539.338 -551.416
638 1 6 0.000 -213.825 -546.217 -545.696
639 1 7 0.000 -206.844 -560.200 -559.081
640 1 7 0.000 -222.288 -567.718 -570.412
641 1 6 0.000 -240.385 -564.037 -561.336
642 1 5 0.000 -237.737 -559.730 -541.389
643 1 4 0.000 -219.297 -566.223 -534.966
644 1 3 -0.000 -224.687 -556.210 -601.695
645 1 2 -0.000 -252.171 -546.158 -587.799
646 1 2 -0.000 -258.657 -533.331 -558.766
647 1 2 -0.000 -240.360 -527.948 -532.580
648 1 2 -0.000 -209.661 -535.368 -525.367
649 1 2 -0.000 -187.034 -552.601 -540.876
650 1 2 -0.000 -187.685 -570.254 -568.032
651 1 2 -0.000 -211.636 -578.659 -588.162
652 1 2 -0.000 -243.706 -574.183 -587.177
653 1 2 -0.000 -263.419 -561.595 -564.762
654 1 2 -0.000 -258.361 -550.957 -534.584
655 1 2 -0.000 -232.275 -551.058 -515.373
656 1 2 -0.000 -202.627 -563.682 -518.705
657 1 3 -0.000 -189.203 -582.443 -541.450
658 1 1 -7.350 -193.150 -596.222 -561.099
659 1 1 -7.350 -197.098 -610.001 -580.748
660 1 1 -7.350 -201.045 -623.781 -600.396
661 1 1 -7.350 -204.992 -637.560 -620.045
662 1 4 0.000 -228.825 -672.396 -658.980
663 1 5 0.000 -247.450 -679.468 -664.129
664 1 6 0.000 -261.974 -670.838 -652.380
665 1 7 0.000 -253.673 -662.762 -635.371
666 1 7 0.000 -235.020 -670.738 -631.928
667 1 6 0.000 -232.634 -688.328 -642.337
668 1 5 0.000 -250.903 -695.952 -647.953
669 1 4 0.000 -265.986 -687.653 -636.681
670 1 3 -0.000 -208.939 -651.339 -639.694
671 1 2 -0.000 -205.795 -676.622 -659.703
672 1 2 -0.000 -227.144 -693.401 -677.372
673 1 2 -0.000 -259.434 -692.218 -679.700
674 1 2 -0.000 -281.977 -675.334 -663.691
675 1 2 -0.000 -280.441 -655.253 -638.316
676 1 2 -0.000 -256.205 -646.565 -618.653
677 1 2 -0.000 -225.456 -656.426 -616.055
678 1 2 -0.000 -208.630 -679.893 -630.742
679 1 2 -0.000 -217.081 -703.145 -651.657
680 1 2 -0.000 -245.671 -712.502 -663.681
681 1 2 -0.000 -276.125 -703.349 -657.494
682 1 2 -0.000 -288.951 -683.146 -635.657
683 1 3 -0.000 -276.158 -666.562 -610.942
684 1 20 5.000 -235.620 -628.884 -593.200
685 1 20 5.000 -229.832 -603.768 -566.369
686 1 1 -7.350 -260.690 -661.103 -601.124
687 1 1 -7.350 -245.223 -655.644 -591.305
688 1 1 -7.350 -229.755 -650.185 -581.486
689 1 1 -7.350 -214.287 -644.727 -571.667
690 1 1 -7.350 -198.819 -639.268 -561.848
691 1 1 -7.350 -183.352 -633.809 -552.029
692 1 4 0.000 -134.635 -628.399 -531.949
693 1 5 0.000 -116.805 -638.372 -529.486
694 1 6 0.000 -118.699 -658.081 -535.090
695 1 7 0.000 -138.515 -663.608 -535.536
696 1 7 0.000 -149.957 -650.418 -524.649
697 1 6 0.000 -138.174 -639.556 -511.742
698 1 5 0.000 -120.056 -648.884 -508.889
699 1 4 0.000 -121.151 -668.673 -514.424
700 1 3 -0.000 -167.884 -628.350 -542.211
701 1 2 -0.000 -147.281 -609.770 -525.483
702 1 2 -0.000 -115.706 -612.559 -518.792
703 1 2 -0.000 -94.021 -635.904 -524.646
704 1 2 -0.000 -96.635 -665.582 -537.368
705 1 2 -0.000 -122.105 -683.240 -546.801
706 1 2 -0.000 -154.077 -678.365 -544.932
707 1 2 -0.000 -171.957 -655.145 -531.125
708 1 2 -0.000 -164.341 -629.735 -512.528
709 1 2 -0.000 -136.461 -619.720 -499.416
710 1 2 -0.000 -106.767 -632.641 -498.486
711 1 2 -0.000 -94.895 -661.076 -508.487
712 1 2 -0.000 -108.851 -687.482 -521.036
713 1 3 -0.000 -139.793 -695.639 -526.090