LAMMPS data file

50 atoms
49 bonds
48 angles

1 atom types
1 bond types
1 angle types

-400.0 400.0 xlo xhi
-400.0 400.0 ylo yhi
-400.0 400.0 zlo zhi

Masses

1 1.0

Atoms # index molecule type q x y z

1 1 1 -7.350 0.000 0.000 -857.500
2 1 1 -7.350 0.000 0.000 -822.500
3 1 1 -7.350 0.000 0.000 -787.500
4 1 1 -7.350 0.000 0.000 -752.500
5 1 1 -7.350 0.000 0.000 -717.500
6 1 1 -7.350 0.000 0.000 -682.500
7 1 1 -7.350 0.000 0.000 -647.500
8 1 1 -7.350 0.000 0.000 -612.500
9 1 1 -7.350 0.000 0.000 -577.500
10 1 1 -7.350 0.000 0.000 -542.500
11 1 1 -7.350 0.000 0.000 -507.500
12 1 1 -7.350 0.000 0.000 -472.500
13 1 1 -7.350 0.000 0.000 -437.500
14 1 1 -7.350 0.000 0.000 -402.500
15 1 1 -7.350 0.000 0.000 -367.500
16 1 1 -7.350 0.000 0.000 -332.500
17 1 1 -7.350 0.000 0.000 -297.500
18 1 1 -7.350 0.000 0.000 -262.500
19 1 1 -7.350 0.000 0.000 -227.500
20 1 1 -7.350 0.000 0.000 -192.500
21 1 1 -7.350 0.000 0.000 -157.500
22 1 1 -7.350 0.000 0.000 -122.500
23 1 1 -7.350 0.000 0.000 -87.500
24 1 1 -7.350 0.000 0.000 -52.500
25 1 1 -7.350 0.000 0.000 -17.500
26 1 1 -7.350 0.000 0.000 17.500
27 1 1 -7.350 0.000 0.000 52.500
28 1 1 -7.350 0.000 0.000 87.500
29 1 1 -7.350 0.000 0.000 122.500
30 1 1 -7.350 0.000 0.000 157.500
31 1 1 -7.350 0.000 0.000 192.500
32 1 1 -7.350 0.000 0.000 227.500
33 1 1 -7.350 0.000 0.000 262.500
34 1 1 -7.350 0.000 0.000 297.500
35 1 1 -7.350 0.000 0.000 332.500
36 1 1 -7.350 0.000 0.000 367.500
37 1 1 -7.350 0.000 0.000 402.500
38 1 1 -7.350 0.000 0.000 437.500
39 1 1 -7.350 0.000 0.000 472.500
40 1 1 -7.350 0.000 0.000 507.500
41 1 1 -7.350 0.000 0.000 542.500
42 1 1 -7.350 0.000 0.000 577.500
43 1 1 -7.350 0.000 0.000 612.500
44 1 1 -7.350 0.000 0.000 647.500
45 1 1 -7.350 0.000 0.000 682.500
46 1 1 -7.350 0.000 0.000 717.500
47 1 1 -7.350 0.000 0.000 752.500
48 1 1 -7.350 0.000 0.000 787.500
49 1 1 -7.350 0.000 0.000 822.500
50 1 1 -7.350 0.000 0.000 857.500

Bonds

1 1 1 2
2 1 2 3
3 1 3 4
4 1 4 5
5 1 5 6
6 1 6 7
7 1 7 8
8 1 8 9
9 1 9 10
10 1 10 11
11 1 11 12
12 1 12 13
13 1 13 14
14 1 14 15
15 1 15 16
16 1 16 17
17 1 17 18
18 1 18 19
19 1 19 20
20 1 20 21
21 1 21 22
22 1 22 23
23 1 23 24
24 1 24 25
25 1 25 26
26 1 26 27
27 1 27 28
28 1 28 29
29 1 29 30
30 1 30 31
31 1 31 32
32 1 32 33
33 1 33 34
34 1 34 35
35 1 35 36
36 1 36 37
37 1 37 38
38 1 38 39
39 1 39 40
40 1 40 41
41 1 41 42
42 1 42 43
43 1 43 44
44 1 44 45
45 1 45 46
46 1 46 47
47 1 47 48
48 1 48 49
49 1 49 50

Angles

1 1 1 2 3
2 1 2 3 4
3 1 3 4 5
4 1 4 5 6
5 1 5 6 7
6 1 6 7 8
7 1 7 8 9
8 1 8 9 10
9 1 9 10 11
10 1 10 11 12
11 1 11 12 13
12 1 12 13 14
13 1 13 14 15
14 1 14 15 16
15 1 15 16 17
16 1 16 17 18
17 1 17 18 19
18 1 18 19 20
19 1 19 20 21
20 1 20 21 22
21 1 21 22 23
22 1 22 23 24
23 1 23 24 25
24 1 24 25 26
25 1 25 26 27
26 1 26 27 28
27 1 27 28 29
28 1 28 29 30
29 1 29 30 31
30 1 30 31 32
31 1 31 32 33
32 1 32 33 34
33 1 33 34 35
34 1 34 35 36
35 1 35 36 37
36 1 36 37 38
37 1 37 38 39
38 1 38 39 40
39 1 39 40 41
40 1 40 41 42
41 1 41 42 43
42 1 42 43 44
43 1 43 44 45
44 1 44 45 46
45 1 45 46 47
46 1 46 47 48
47 1 47 48 49
48 1 48 49 50

